<?xml version="1.0" encoding="UTF-8"?>

<!-- generated on 2023-08-04 23:20:30 by Eclipse SUMO GUI Version 1.18.0
<configuration xmlns:xsi="http://www.w3.org/2001/XMLSchema-instance" xsi:noNamespaceSchemaLocation="http://sumo.dlr.de/xsd/sumoConfiguration.xsd">

    <input>
        <net-file value="C:/Users/HP/Downloads/simple/traffic1.net.xml"/>
        <route-files value="C:/Users/HP/Downloads/simple/first.rou.xml"/>
        <additional-files value="C:/Users/HP/Downloads/simple/add.2.xml"/>
    </input>

    <time>
        <begin value="0"/>
        <end value="12000"/>
        <step-length value="0.1"/>
    </time>

    <report>
        <no-step-log value="true"/>
    </report>

    <traci_server>
        <remote-port value="60969"/>
    </traci_server>

    <gui_only>
        <gui-settings-file value="C:/Users/HP/Downloads/simple/traffic.net.xml"/>
    </gui_only>

</configuration>
-->

<detector xmlns:xsi="http://www.w3.org/2001/XMLSchema-instance" xsi:noNamespaceSchemaLocation="http://sumo.dlr.de/xsd/det_e1_file.xsd">
</detector>
