<?xml version="1.0" encoding="UTF-8"?>

<!-- generated on 2023-08-03 15:36:46 by Eclipse SUMO GUI Version 1.18.0
<configuration xmlns:xsi="http://www.w3.org/2001/XMLSchema-instance" xsi:noNamespaceSchemaLocation="http://sumo.dlr.de/xsd/sumoConfiguration.xsd">

    <input>
        <net-file value="C:/Users/HP/Downloads/simple/traffic1.net.xml"/>
        <route-files value="C:/Users/HP/Downloads/simple/first.rou.xml"/>
        <additional-files value="C:/Users/HP/Downloads/simple/add.2.xml"/>
    </input>

    <time>
        <begin value="0"/>
        <end value="12000"/>
        <step-length value="0.1"/>
    </time>

    <report>
        <no-step-log value="true"/>
    </report>

    <traci_server>
        <remote-port value="57541"/>
    </traci_server>

    <gui_only>
        <gui-settings-file value="C:/Users/HP/Downloads/simple/traffic.net.xml"/>
    </gui_only>

</configuration>
-->

<detector xmlns:xsi="http://www.w3.org/2001/XMLSchema-instance" xsi:noNamespaceSchemaLocation="http://sumo.dlr.de/xsd/det_e1_file.xsd">
    <interval begin="0.00" end="14.40" id="myLoop1" nVehContrib="1" flow="250.00" occupancy="5.34" speed="7.40" harmonicMeanSpeed="7.40" length="5.00" nVehEntered="2"/>
</detector>
